           3
Time step:                   1 Sim. Time [au]          20.00
O    -0.32693929E-02   -0.13418603E-03    0.11734783E+00
H     0.16760156E-01    0.76803966E+00   -0.45277550E+00
H     0.33755990E-01   -0.76593708E+00   -0.48284855E+00
           3
Time step:                   2 Sim. Time [au]          40.00
O    -0.76719067E-02   -0.43984876E-03    0.11696146E+00
H     0.38395057E-01    0.78558059E+00   -0.43611303E+00
H     0.65288361E-01   -0.77947140E+00   -0.49646691E+00
           3
Time step:                   3 Sim. Time [au]          60.00
O    -0.12610418E-01   -0.11699315E-02    0.11647156E+00
H     0.60867491E-01    0.80842638E+00   -0.42181229E+00
H     0.87497451E-01   -0.79609760E+00   -0.51173484E+00
           3
Time step:                   4 Sim. Time [au]          80.00
O    -0.17475991E-01   -0.27969631E-02    0.11553034E+00
H     0.81139190E-01    0.83346989E+00   -0.40972437E+00
H     0.10354146E+00   -0.81584177E+00   -0.52875171E+00
           3
Time step:                   5 Sim. Time [au]         100.00
O    -0.21870222E-01   -0.58748068E-02    0.11340535E+00
H     0.98124872E-01    0.85423564E+00   -0.39944530E+00
H     0.11607154E+00   -0.83799908E+00   -0.54838245E+00
           3
Time step:                   6 Sim. Time [au]         120.00
O    -0.25622307E-01   -0.10402633E-01    0.10936390E+00
H     0.11192256E+00    0.86618759E+00   -0.39068968E+00
H     0.12626810E+00   -0.86058303E+00   -0.57189987E+00
           3
Time step:                   7 Sim. Time [au]         140.00
O    -0.28741843E-01   -0.15741799E-01    0.10368683E+00
H     0.12311493E+00    0.87006787E+00   -0.38328098E+00
H     0.13475424E+00   -0.88131593E+00   -0.59850006E+00
           3
Time step:                   8 Sim. Time [au]         160.00
O    -0.31336334E-01   -0.21130928E-01    0.97519706E-01
H     0.13240227E+00    0.86880496E+00   -0.37703678E+00
H     0.14198904E+00   -0.89965341E+00   -0.62302789E+00
           3
Time step:                   9 Sim. Time [au]         180.00
O    -0.33539469E-01   -0.26009555E-01    0.91966169E-01
H     0.14043748E+00    0.86428625E+00   -0.37176649E+00
H     0.14839990E+00   -0.91794428E+00   -0.64020766E+00
           3
Time step:                  10 Sim. Time [au]         200.00
O    -0.35480225E-01   -0.30160696E-01    0.87453891E-01
H     0.14781138E+00    0.85728777E+00   -0.36733044E+00
H     0.15450131E+00   -0.93999244E+00   -0.64901770E+00
           3
Time step:                  11 Sim. Time [au]         220.00
O    -0.37285836E-01   -0.33653926E-01    0.83852184E-01
H     0.15514294E+00    0.84816349E+00   -0.36368266E+00
H     0.16112298E+00   -0.96517639E+00   -0.65080217E+00
           3
Time step:                  12 Sim. Time [au]         240.00
O    -0.39111939E-01   -0.36683193E-01    0.80871628E-01
H     0.16327589E+00    0.83724147E+00   -0.36086777E+00
H     0.16989505E+00   -0.98675874E+00   -0.64681776E+00
           3
Time step:                  13 Sim. Time [au]         260.00
O    -0.41217959E-01   -0.39447248E-01    0.78265855E-01
H     0.17371970E+00    0.82500490E+00   -0.35898733E+00
H     0.18373450E+00   -0.99988974E+00   -0.63763415E+00
           3
Time step:                  14 Sim. Time [au]         280.00
O    -0.44143729E-01   -0.42102310E-01    0.75862453E-01
H     0.18958481E+00    0.81212507E+00   -0.35820613E+00
H     0.20498071E+00   -0.10033040E+01   -0.62349665E+00
           3
Time step:                  15 Sim. Time [au]         300.00
O    -0.48941436E-01   -0.44747389E-01    0.73541104E-01
H     0.21573341E+00    0.79932678E+00   -0.35887279E+00
H     0.23051682E+00   -0.99551526E+00   -0.60527116E+00
           3
Time step:                  16 Sim. Time [au]         320.00
O    -0.56447667E-01   -0.47409156E-01    0.71209335E-01
H     0.25061032E+00    0.78710135E+00   -0.36181769E+00
H     0.25367589E+00   -0.97283093E+00   -0.58544956E+00
           3
Time step:                  17 Sim. Time [au]         340.00
O    -0.64620355E-01   -0.50027117E-01    0.68805948E-01
H     0.27879037E+00    0.77556734E+00   -0.36862080E+00
H     0.27134870E+00   -0.93690790E+00   -0.56729777E+00
           3
Time step:                  18 Sim. Time [au]         360.00
O    -0.70315033E-01   -0.52460911E-01    0.66373229E-01
H     0.29422844E+00    0.76479861E+00   -0.38108607E+00
H     0.28406539E+00   -0.90598793E+00   -0.55225982E+00
           3
Time step:                  19 Sim. Time [au]         380.00
O    -0.73541435E-01   -0.54489939E-01    0.64081888E-01
H     0.30250253E+00    0.75484073E+00   -0.39975411E+00
H     0.29315254E+00   -0.88599542E+00   -0.53952385E+00
           3
Time step:                  20 Sim. Time [au]         400.00
O    -0.75431182E-01   -0.55853407E-01    0.62027066E-01
H     0.30770116E+00    0.74542356E+00   -0.42261539E+00
H     0.29958502E+00   -0.87020920E+00   -0.52769252E+00
           3
Time step:                  21 Sim. Time [au]         420.00
O    -0.76651250E-01   -0.56601231E-01    0.60179943E-01
H     0.31128362E+00    0.73606309E+00   -0.44529729E+00
H     0.30391352E+00   -0.85530319E+00   -0.51580685E+00
           3
Time step:                  22 Sim. Time [au]         440.00
O    -0.77493660E-01   -0.57065983E-01    0.58481016E-01
H     0.31358629E+00    0.72635049E+00   -0.46390011E+00
H     0.30639907E+00   -0.84062496E+00   -0.50345339E+00
           3
Time step:                  23 Sim. Time [au]         460.00
O    -0.78095726E-01   -0.57423053E-01    0.56887276E-01
H     0.31456318E+00    0.71610809E+00   -0.47724480E+00
H     0.30718542E+00   -0.82642548E+00   -0.49064712E+00
           3
Time step:                  24 Sim. Time [au]         480.00
O    -0.78539385E-01   -0.57708752E-01    0.55383476E-01
H     0.31405948E+00    0.70541626E+00   -0.48604090E+00
H     0.30646189E+00   -0.81323008E+00   -0.47771197E+00
           3
Time step:                  25 Sim. Time [au]         500.00
O    -0.78891167E-01   -0.57913958E-01    0.53979716E-01
H     0.31180590E+00    0.69458768E+00   -0.49143012E+00
H     0.30448438E+00   -0.80160895E+00   -0.46516655E+00
           3
Time step:                  26 Sim. Time [au]         520.00
O    -0.79229464E-01   -0.58014591E-01    0.52703891E-01
H     0.30723237E+00    0.68411952E+00   -0.49438905E+00
H     0.30149484E+00   -0.79209417E+00   -0.45366197E+00
           3
Time step:                  27 Sim. Time [au]         540.00
O    -0.79689022E-01   -0.57974080E-01    0.51591077E-01
H     0.29920439E+00    0.67462786E+00   -0.49567459E+00
H     0.29763473E+00   -0.78516513E+00   -0.44416796E+00
           3
Time step:                  28 Sim. Time [au]         560.00
O    -0.80547193E-01   -0.57731517E-01    0.50671273E-01
H     0.28592735E+00    0.66676868E+00   -0.49591036E+00
H     0.29285776E+00   -0.78124522E+00   -0.43816262E+00
           3
Time step:                  29 Sim. Time [au]         580.00
O    -0.82230726E-01   -0.57158685E-01    0.49959720E-01
H     0.26592695E+00    0.66114675E+00   -0.49567263E+00
H     0.28681697E+00   -0.78069390E+00   -0.43588907E+00
           3
Time step:                  30 Sim. Time [au]         600.00
O    -0.85021499E-01   -0.55956872E-01    0.49456942E-01
H     0.24084949E+00    0.65821665E+00   -0.49563363E+00
H     0.27879931E+00   -0.78408724E+00   -0.43582396E+00
           3
Time step:                  31 Sim. Time [au]         620.00
O    -0.88890040E-01   -0.53638582E-01    0.49154580E-01
H     0.21639405E+00    0.65822527E+00   -0.49704362E+00
H     0.26782448E+00   -0.79383707E+00   -0.43687512E+00
           3
Time step:                  32 Sim. Time [au]         640.00
O    -0.93556248E-01   -0.49969399E-01    0.49031200E-01
H     0.19732940E+00    0.66120064E+00   -0.50228963E+00
H     0.25290339E+00   -0.81755369E+00   -0.43850169E+00
           3
Time step:                  33 Sim. Time [au]         660.00
O    -0.98517893E-01   -0.45355449E-01    0.49035236E-01
H     0.18425150E+00    0.66687221E+00   -0.51446471E+00
H     0.23349885E+00   -0.85716741E+00   -0.43994934E+00
           3
Time step:                  34 Sim. Time [au]         680.00
O    -0.10321926E+00   -0.40513756E-01    0.49087196E-01
H     0.17559500E+00    0.67457506E+00   -0.53525237E+00
H     0.21067022E+00   -0.88873089E+00   -0.44015768E+00
           3
Time step:                  35 Sim. Time [au]         700.00
O    -0.10730954E+00   -0.35987050E-01    0.49101155E-01
H     0.16959548E+00    0.68341281E+00   -0.56149555E+00
H     0.18780599E+00   -0.90390969E+00   -0.43836971E+00
           3
Time step:                  36 Sim. Time [au]         720.00
O    -0.11069917E+00   -0.32002188E-01    0.48941334E-01
H     0.16491660E+00    0.69259088E+00   -0.58582392E+00
H     0.16827580E+00   -0.90956260E+00   -0.43387861E+00
           3
Time step:                  37 Sim. Time [au]         740.00
O    -0.11345594E+00   -0.28563406E-01    0.48360074E-01
H     0.16074792E+00    0.70181896E+00   -0.60368681E+00
H     0.15314042E+00   -0.90952709E+00   -0.42543103E+00
           3
Time step:                  38 Sim. Time [au]         760.00
O    -0.11569686E+00   -0.25567404E-01    0.47033346E-01
H     0.15672757E+00    0.71150079E+00   -0.61526499E+00
H     0.14173780E+00   -0.90509360E+00   -0.41059786E+00
           3
Time step:                  39 Sim. Time [au]         780.00
O    -0.11753283E+00   -0.22866283E-01    0.44692457E-01
H     0.15283224E+00    0.72261315E+00   -0.62211840E+00
H     0.13311053E+00   -0.89677201E+00   -0.38625654E+00
           3
Time step:                  40 Sim. Time [au]         800.00
O    -0.11905658E+00   -0.20284271E-01    0.41177680E-01
H     0.14919902E+00    0.73594765E+00   -0.62536448E+00
H     0.12665928E+00   -0.88513774E+00   -0.35456737E+00
           3
Time step:                  41 Sim. Time [au]         820.00
O    -0.12035309E+00   -0.17621362E-01    0.36503061E-01
H     0.14587863E+00    0.75072242E+00   -0.62546900E+00
H     0.12219136E+00   -0.87135350E+00   -0.32774335E+00
           3
Time step:                  42 Sim. Time [au]         840.00
O    -0.12151545E+00   -0.14686971E-01    0.31051830E-01
H     0.14275721E+00    0.76455526E+00   -0.62234581E+00
H     0.11972780E+00   -0.85712155E+00   -0.31350361E+00
           3
Time step:                  43 Sim. Time [au]         860.00
O    -0.12265522E+00   -0.11356706E-01    0.25631578E-01
H     0.13966066E+00    0.77519815E+00   -0.61514880E+00
H     0.11931095E+00   -0.84411110E+00   -0.30861982E+00
           3
Time step:                  44 Sim. Time [au]         880.00
O    -0.12391282E+00   -0.76187870E-02    0.21033224E-01
H     0.13645779E+00    0.78143311E+00   -0.60065132E+00
H     0.12092814E+00   -0.83346888E+00   -0.30863523E+00
           3
Time step:                  45 Sim. Time [au]         900.00
O    -0.12549660E+00   -0.36044546E-02    0.17568460E-01
H     0.13312638E+00    0.78276302E+00   -0.56945273E+00
H     0.12445809E+00   -0.82569350E+00   -0.31205690E+00
           3
Time step:                  46 Sim. Time [au]         920.00
O    -0.12779631E+00    0.39161707E-03    0.15150891E-01
H     0.12988780E+00    0.77934498E+00   -0.52395293E+00
H     0.12960657E+00   -0.82083588E+00   -0.31887968E+00
           3
Time step:                  47 Sim. Time [au]         940.00
O    -0.13157768E+00    0.39822703E-02    0.13583223E-01
H     0.12730209E+00    0.77251750E+00   -0.49698165E+00
H     0.13586757E+00   -0.81895458E+00   -0.32936531E+00
           3
Time step:                  48 Sim. Time [au]         960.00
O    -0.13781580E+00    0.68975956E-02    0.12662779E-01
H     0.12584875E+00    0.76421392E+00   -0.48586061E+00
H     0.14253682E+00   -0.82054145E+00   -0.34348290E+00
           3
Time step:                  49 Sim. Time [au]         980.00
O    -0.14592584E+00    0.90450187E-02    0.12225609E-01
H     0.12596186E+00    0.75640270E+00   -0.48102469E+00
H     0.14885763E+00   -0.82596120E+00   -0.36045733E+00
           3
Time step:                  50 Sim. Time [au]        1000.00
O    -0.15279035E+00    0.10451219E-01    0.12149753E-01
H     0.12887590E+00    0.75037696E+00   -0.48010125E+00
H     0.15422036E+00   -0.83453798E+00   -0.37857338E+00
           3
Time step:                  51 Sim. Time [au]        1020.00
O    -0.15698931E+00    0.11205010E-01    0.12336324E-01
H     0.13867074E+00    0.74670248E+00   -0.48282687E+00
H     0.15829514E+00   -0.84476988E+00   -0.39570425E+00
           3
Time step:                  52 Sim. Time [au]        1040.00
O    -0.15948566E+00    0.11426967E-01    0.12675201E-01
H     0.16121924E+00    0.74540103E+00   -0.48935650E+00
H     0.16100306E+00   -0.85511382E+00   -0.41014258E+00
           3
Time step:                  53 Sim. Time [au]        1060.00
O    -0.16125688E+00    0.11262836E-01    0.13033881E-01
H     0.19455185E+00    0.74587901E+00   -0.49984510E+00
H     0.16239064E+00   -0.86437511E+00   -0.42078074E+00
           3
Time step:                  54 Sim. Time [au]        1080.00
O    -0.16275434E+00    0.10866977E-01    0.13309493E-01
H     0.22419292E+00    0.74692348E+00   -0.51434682E+00
H     0.16253311E+00   -0.87165680E+00   -0.42686398E+00
           3
Time step:                  55 Sim. Time [au]        1100.00
O    -0.16413920E+00    0.10367139E-01    0.13443775E-01
H     0.24300302E+00    0.74688206E+00   -0.53275700E+00
H     0.16150333E+00   -0.87603591E+00   -0.42878916E+00
           3
Time step:                  56 Sim. Time [au]        1120.00
O    -0.16547047E+00    0.98563983E-02    0.13399665E-01
H     0.25430918E+00    0.74359676E+00   -0.55408313E+00
H     0.15938616E+00   -0.87610307E+00   -0.42833093E+00
           3
Time step:                  57 Sim. Time [au]        1140.00
O    -0.16679070E+00    0.94004046E-02    0.13138087E-01
H     0.26144787E+00    0.73466246E+00   -0.57571307E+00
H     0.15631994E+00   -0.86959267E+00   -0.42659321E+00
           3
Time step:                  58 Sim. Time [au]        1160.00
O    -0.16816605E+00    0.90398499E-02    0.12597120E-01
H     0.26594177E+00    0.71846359E+00   -0.59431636E+00
H     0.15254738E+00   -0.85399406E+00   -0.42380901E+00
           3
Time step:                  59 Sim. Time [au]        1180.00
O    -0.16971973E+00    0.87993364E-02    0.11635814E-01
H     0.26842039E+00    0.69584722E+00   -0.60774602E+00
H     0.14837015E+00   -0.82967294E+00   -0.42006741E+00
           3
Time step:                  60 Sim. Time [au]        1200.00
O    -0.17167631E+00    0.87049377E-02    0.98420625E-02
H     0.26918412E+00    0.67125460E+00   -0.61581014E+00
H     0.14408028E+00   -0.80327557E+00   -0.41563638E+00
           3
Time step:                  61 Sim. Time [au]        1220.00
O    -0.17440512E+00    0.87901998E-02    0.61355136E-02
H     0.26838066E+00    0.64996908E+00   -0.61973502E+00
H     0.13999836E+00   -0.78275068E+00   -0.41097539E+00
           3
Time step:                  62 Sim. Time [au]        1240.00
O    -0.17837557E+00    0.90841091E-02   -0.65559556E-03
H     0.26596744E+00    0.63409490E+00   -0.62113712E+00
H     0.13642334E+00   -0.77057277E+00   -0.40654470E+00
           3
Time step:                  63 Sim. Time [au]        1260.00
O    -0.18381100E+00    0.95989411E-02   -0.88252933E-02
H     0.26150810E+00    0.62306911E+00   -0.62135278E+00
H     0.13356097E+00   -0.76601627E+00   -0.40262877E+00
           3
Time step:                  64 Sim. Time [au]        1280.00
O    -0.19006442E+00    0.10306054E-01   -0.15213483E-01
H     0.25369858E+00    0.61583157E+00   -0.62132746E+00
H     0.13147816E+00   -0.76833752E+00   -0.39914846E+00
           3
Time step:                  65 Sim. Time [au]        1300.00
O    -0.19587401E+00    0.11047890E-01   -0.19429623E-01
H     0.24036675E+00    0.61169990E+00   -0.62174102E+00
H     0.13015025E+00   -0.77727091E+00   -0.39536371E+00
           3
Time step:                  66 Sim. Time [au]        1320.00
O    -0.20070111E+00    0.11541103E-01   -0.22338169E-01
H     0.22115323E+00    0.61052443E+00   -0.62328622E+00
H     0.12967397E+00   -0.79246315E+00   -0.38981695E+00
           3
Time step:                  67 Sim. Time [au]        1340.00
O    -0.20479568E+00    0.11798688E-01   -0.24557898E-01
H     0.19951499E+00    0.61267383E+00   -0.62693506E+00
H     0.13018381E+00   -0.81233410E+00   -0.38167628E+00
           3
Time step:                  68 Sim. Time [au]        1360.00
O    -0.20846565E+00    0.11894739E-01   -0.26415521E-01
H     0.17945955E+00    0.61901859E+00   -0.63422474E+00
H     0.13149416E+00   -0.83290150E+00   -0.37113492E+00
           3
Time step:                  69 Sim. Time [au]        1380.00
O    -0.21188058E+00    0.11830959E-01   -0.28111959E-01
H     0.16268937E+00    0.63127503E+00   -0.64788696E+00
H     0.13326058E+00   -0.84898240E+00   -0.35823958E+00
           3
Time step:                  70 Sim. Time [au]        1400.00
O    -0.21511828E+00    0.11626251E-01   -0.29824813E-01
H     0.14880542E+00    0.65253056E+00   -0.67177257E+00
H     0.13531867E+00   -0.85824838E+00   -0.34308081E+00
           3
Time step:                  71 Sim. Time [au]        1420.00
O    -0.21820965E+00    0.11364558E-01   -0.31757457E-01
H     0.13640504E+00    0.68384227E+00   -0.70420081E+00
H     0.13781949E+00   -0.86233512E+00   -0.32623379E+00
           3
Time step:                  72 Sim. Time [au]        1440.00
O    -0.22118103E+00    0.11178785E-01   -0.34097930E-01
H     0.12403426E+00    0.71460174E+00   -0.73167122E+00
H     0.14125976E+00   -0.86361603E+00   -0.30883452E+00
           3
Time step:                  73 Sim. Time [au]        1460.00
O    -0.22409527E+00    0.11198062E-01   -0.36915987E-01
H     0.11089590E+00    0.73239269E+00   -0.74652981E+00
H     0.14648511E+00   -0.86336841E+00   -0.29220221E+00
           3
Time step:                  74 Sim. Time [au]        1480.00
O    -0.22705995E+00    0.11566354E-01   -0.40192508E-01
H     0.96914250E-01    0.73798740E+00   -0.75200853E+00
H     0.15465164E+00   -0.86204384E+00   -0.27732763E+00
           3
Time step:                  75 Sim. Time [au]        1500.00
O    -0.23024418E+00    0.12559738E-01   -0.43875753E-01
H     0.82668968E-01    0.73647438E+00   -0.75203374E+00
H     0.16699545E+00   -0.85964248E+00   -0.26468356E+00
           3
Time step:                  76 Sim. Time [au]        1520.00
O    -0.23396221E+00    0.14725878E-01   -0.47868707E-01
H     0.69594903E-01    0.73070730E+00   -0.74846805E+00
H     0.18413445E+00   -0.85577210E+00   -0.25433936E+00
           3
Time step:                  77 Sim. Time [au]        1540.00
O    -0.23886019E+00    0.18601326E-01   -0.52012165E-01
H     0.59597184E-01    0.72172160E+00   -0.74186824E+00
H     0.20498522E+00   -0.84951279E+00   -0.24612510E+00
           3
Time step:                  78 Sim. Time [au]        1560.00
O    -0.24579911E+00    0.23869890E-01   -0.56099903E-01
H     0.53082948E-01    0.71009317E+00   -0.73247418E+00
H     0.22651353E+00   -0.83915726E+00   -0.23969506E+00
           3
Time step:                  79 Sim. Time [au]        1580.00
O    -0.25395715E+00    0.29466509E-01   -0.59920695E-01
H     0.49010013E-01    0.69665537E+00   -0.72087533E+00
H     0.24554445E+00   -0.82192197E+00   -0.23455149E+00
           3
Time step:                  80 Sim. Time [au]        1600.00
O    -0.26018332E+00    0.34496954E-01   -0.63294138E-01
H     0.46536107E-01    0.68270859E+00   -0.70813895E+00
H     0.26075108E+00   -0.79484005E+00   -0.23015936E+00
           3
Time step:                  81 Sim. Time [au]        1620.00
O    -0.26371762E+00    0.38628964E-01   -0.66072474E-01
H     0.45437855E-01    0.66987496E+00   -0.69570440E+00
H     0.27266643E+00   -0.76172835E+00   -0.22607494E+00
           3
Time step:                  82 Sim. Time [au]        1640.00
O    -0.26581839E+00    0.41922789E-01   -0.68128357E-01
H     0.45923806E-01    0.65974992E+00   -0.68510295E+00
H     0.28258985E+00   -0.73805592E+00   -0.22189899E+00
           3
Time step:                  83 Sim. Time [au]        1660.00
O    -0.26738056E+00    0.44537688E-01   -0.69391419E-01
H     0.48497316E-01    0.65359764E+00   -0.67766175E+00
H     0.29136930E+00   -0.72815653E+00   -0.21696734E+00
           3
Time step:                  84 Sim. Time [au]        1680.00
O    -0.26879713E+00    0.46608319E-01   -0.69947314E-01
H     0.53903745E-01    0.65237961E+00   -0.67443001E+00
H     0.29902222E+00   -0.72421131E+00   -0.20985680E+00
           3
Time step:                  85 Sim. Time [au]        1700.00
O    -0.27024680E+00    0.48267734E-01   -0.70018738E-01
H     0.63258331E-01    0.65722695E+00   -0.67650772E+00
H     0.30526587E+00   -0.72228257E+00   -0.19766211E+00
           3
Time step:                  86 Sim. Time [au]        1720.00
O    -0.27182924E+00    0.49687614E-01   -0.69819554E-01
H     0.78876322E-01    0.67062722E+00   -0.68587806E+00
H     0.30996874E+00   -0.72122276E+00   -0.17652757E+00
           3
Time step:                  87 Sim. Time [au]        1740.00
O    -0.27362089E+00    0.51147405E-01   -0.69518877E-01
H     0.10605543E+00    0.69722033E+00   -0.70546826E+00
H     0.31335038E+00   -0.72060667E+00   -0.14747626E+00
           3
Time step:                  88 Sim. Time [au]        1760.00
O    -0.27572060E+00    0.53250539E-01   -0.69281974E-01
H     0.14611065E+00    0.73376478E+00   -0.73341492E+00
H     0.31586073E+00   -0.72017349E+00   -0.11973602E+00
           3
Time step:                  89 Sim. Time [au]        1780.00
O    -0.27840019E+00    0.57765391E-01   -0.69250761E-01
H     0.17654483E+00    0.76069915E+00   -0.75916609E+00
H     0.31788627E+00   -0.71961946E+00   -0.99416701E-01
           3
Time step:                  90 Sim. Time [au]        1800.00
O    -0.28269682E+00    0.67784538E-01   -0.69502934E-01
H     0.18889564E+00    0.77182828E+00   -0.77638336E+00
H     0.31952573E+00   -0.71831764E+00   -0.85306934E-01
           3
Time step:                  91 Sim. Time [au]        1820.00
O    -0.29185027E+00    0.78099680E-01   -0.70113905E-01
H     0.19275268E+00    0.77332104E+00   -0.78578269E+00
H     0.32049842E+00   -0.71471849E+00   -0.74612768E-01
           3
Time step:                  92 Sim. Time [au]        1840.00
O    -0.30414499E+00    0.83710563E-01   -0.71273258E-01
H     0.19240937E+00    0.76924493E+00   -0.78893843E+00
H     0.32042007E+00   -0.70594240E+00   -0.65448209E-01
           3
Time step:                  93 Sim. Time [au]        1860.00
O    -0.30999290E+00    0.87283586E-01   -0.73526712E-01
H     0.18881264E+00    0.76065623E+00   -0.78632628E+00
H     0.31914040E+00   -0.68862287E+00   -0.56796304E-01
           3
Time step:                  94 Sim. Time [au]        1880.00
O    -0.31256313E+00    0.90383391E-01   -0.78150844E-01
H     0.18213105E+00    0.74765925E+00   -0.77757667E+00
H     0.31704699E+00   -0.66347026E+00   -0.48088745E-01
           3
Time step:                  95 Sim. Time [au]        1900.00
O    -0.31431068E+00    0.93447753E-01   -0.86113194E-01
H     0.17232965E+00    0.73078804E+00   -0.76218233E+00
H     0.31492069E+00   -0.63768979E+00   -0.38813280E-01
           3
Time step:                  96 Sim. Time [au]        1920.00
O    -0.31582511E+00    0.96601072E-01   -0.94562847E-01
H     0.15952930E+00    0.71180545E+00   -0.74116062E+00
H     0.31359788E+00   -0.61680384E+00   -0.28321045E-01
           3
Time step:                  97 Sim. Time [au]        1940.00
O    -0.31738366E+00    0.99854337E-01   -0.10036589E+00
H     0.14441105E+00    0.69345490E+00   -0.71865554E+00
H     0.31393577E+00   -0.60119188E+00   -0.15784638E-01
           3
Time step:                  98 Sim. Time [au]        1960.00
O    -0.31924551E+00    0.10313275E+00   -0.10416230E+00
H     0.12841299E+00    0.67823281E+00   -0.70002004E+00
H     0.31754284E+00   -0.58991805E+00   -0.32706561E-03
           3
Time step:                  99 Sim. Time [au]        1980.00
O    -0.32171538E+00    0.10630470E+00   -0.10713003E+00
H     0.11341577E+00    0.66768144E+00   -0.68828030E+00
H     0.32753491E+00   -0.58197902E+00    0.18481035E-01
           3
Time step:                 100 Sim. Time [au]        2000.00
O    -0.32515917E+00    0.10922770E+00   -0.10966002E+00
H     0.10094638E+00    0.66272639E+00   -0.68397500E+00
H     0.34682214E+00   -0.57598773E+00    0.39663298E-01
           3
Time step:                 101 Sim. Time [au]        2020.00
O    -0.32992339E+00    0.11181176E+00   -0.11182212E+00
H     0.91539751E-01    0.66421437E+00   -0.68644785E+00
H     0.37302764E+00   -0.56997748E+00    0.60397209E-01
           3
Time step:                 102 Sim. Time [au]        2040.00
O    -0.33597178E+00    0.11409807E+00   -0.11368283E+00
H     0.84749362E-01    0.67301131E+00   -0.69406867E+00
H     0.39804325E+00   -0.56144421E+00    0.77632609E-01
           3
Time step:                 103 Sim. Time [au]        2060.00
O    -0.34230379E+00    0.11633954E+00   -0.11537396E+00
H     0.79547538E-01    0.68926216E+00   -0.70400445E+00
H     0.41621520E+00   -0.54728406E+00    0.90212388E-01
           3
Time step:                 104 Sim. Time [au]        2080.00
O    -0.34726976E+00    0.11913630E+00   -0.11711147E+00
H     0.74613851E-01    0.71093321E+00   -0.71332269E+00
H     0.42737549E+00   -0.52424585E+00    0.98772274E-01
           3
Time step:                 105 Sim. Time [au]        2100.00
O    -0.35010591E+00    0.12369769E+00   -0.11923145E+00
H     0.68466684E-01    0.73381249E+00   -0.72086381E+00
H     0.43329613E+00   -0.49363738E+00    0.10448687E+00
           3
Time step:                 106 Sim. Time [au]        2120.00
O    -0.35144345E+00    0.13116839E+00   -0.12226875E+00
H     0.59778258E-01    0.75438503E+00   -0.72704877E+00
H     0.43558609E+00   -0.46624412E+00    0.10837049E+00
           3
Time step:                 107 Sim. Time [au]        2140.00
O    -0.35210385E+00    0.13954503E+00   -0.12691584E+00
H     0.47783048E-01    0.77175883E+00   -0.73268455E+00
H     0.43514427E+00   -0.44944483E+00    0.11106338E+00
           3
Time step:                 108 Sim. Time [au]        2160.00
O    -0.35247846E+00    0.14552375E+00   -0.13333078E+00
H     0.32399417E-01    0.78666933E+00   -0.73849866E+00
H     0.43204027E+00   -0.43964888E+00    0.11284012E+00
           3
Time step:                 109 Sim. Time [au]        2180.00
O    -0.35271929E+00    0.14909741E+00   -0.14015448E+00
H     0.14290126E-01    0.80011917E+00   -0.74509400E+00
H     0.42504142E+00   -0.43202509E+00    0.11376854E+00
           3
Time step:                 110 Sim. Time [au]        2200.00
O    -0.35290920E+00    0.15139687E+00   -0.14565817E+00
H    -0.50671120E-02    0.81285342E+00   -0.75296026E+00
H     0.40752894E+00   -0.42422930E+00    0.11380840E+00
           3
Time step:                 111 Sim. Time [au]        2220.00
O    -0.35314979E+00    0.15314255E+00   -0.14948953E+00
H    -0.23780956E-01    0.82521896E+00   -0.76235679E+00
H     0.36744972E+00   -0.41570513E+00    0.11287986E+00
           3
Time step:                 112 Sim. Time [au]        2240.00
O    -0.35366688E+00    0.15478940E+00   -0.15218684E+00
H    -0.40338883E-01    0.83713473E+00   -0.77311880E+00
H     0.32831462E+00   -0.40774933E+00    0.11123942E+00
           3
Time step:                 113 Sim. Time [au]        2260.00
O    -0.35476917E+00    0.15670375E+00   -0.15432352E+00
H    -0.54090877E-01    0.84825567E+00   -0.78467291E+00
H     0.30996579E+00   -0.40252975E+00    0.10968830E+00
           3
Time step:                 114 Sim. Time [au]        2280.00
O    -0.35667068E+00    0.15915317E+00   -0.15626818E+00
H    -0.65096243E-01    0.85814094E+00   -0.79628541E+00
H     0.30460919E+00   -0.40144332E+00    0.10920123E+00
           3
Time step:                 115 Sim. Time [au]        2300.00
O    -0.35942785E+00    0.16231138E+00   -0.15823960E+00
H    -0.73714823E-01    0.86630495E+00   -0.80730353E+00
H     0.30738860E+00   -0.40546364E+00    0.11052936E+00
           3
Time step:                 116 Sim. Time [au]        2320.00
O    -0.36297548E+00    0.16620346E+00   -0.16037663E+00
H    -0.80336681E-01    0.87230098E+00   -0.81729602E+00
H     0.31621056E+00   -0.41577657E+00    0.11397998E+00
           3
Time step:                 117 Sim. Time [au]        2340.00
O    -0.36711504E+00    0.17062238E+00   -0.16279041E+00
H    -0.85304628E-01    0.87574369E+00   -0.82608470E+00
H     0.32915270E+00   -0.43357449E+00    0.11950492E+00
           3
Time step:                 118 Sim. Time [au]        2360.00
O    -0.37150391E+00    0.17516524E+00   -0.16562754E+00
H    -0.88929360E-01    0.87619829E+00   -0.83371827E+00
H     0.34374698E+00   -0.45765755E+00    0.12676328E+00
           3
Time step:                 119 Sim. Time [au]        2380.00
O    -0.37574892E+00    0.17945619E+00   -0.16919159E+00
H    -0.91446357E-01    0.87296673E+00   -0.84044320E+00
H     0.35741272E+00   -0.48211291E+00    0.13513862E+00
           3
Time step:                 120 Sim. Time [au]        2400.00
O    -0.37955449E+00    0.18331476E+00   -0.17416155E+00
H    -0.92917992E-01    0.86485646E+00   -0.84671427E+00
H     0.36833746E+00   -0.50053679E+00    0.14381934E+00
           3
Time step:                 121 Sim. Time [au]        2420.00
O    -0.38278784E+00    0.18671553E+00   -0.18147656E+00
H    -0.93135408E-01    0.85028994E+00   -0.85327325E+00
H     0.37570432E+00   -0.51085891E+00    0.15190539E+00
           3
Time step:                 122 Sim. Time [au]        2440.00
O    -0.38543879E+00    0.18968628E+00   -0.19008924E+00
H    -0.91332192E-01    0.82878708E+00   -0.86123799E+00
H     0.37915565E+00   -0.51367614E+00    0.15846913E+00
           3
Time step:                 123 Sim. Time [au]        2460.00